ITEM: TIMESTEP
0
ITEM: NUMBER OF ATOMS
12
ITEM: BOX BOUNDS pp pp pp
-2.5000000000000000e+01 2.5000000000000000e+01
-2.5000000000000000e+01 2.5000000000000000e+01
-2.5000000000000000e+01 2.5000000000000000e+01
ITEM: ATOMS id type x y z
1 1 0.359083 1.04192 -1.85092
2 2 0.161083 1.43692 -1.17792
3 3 0.555083 1.44892 -0.307917
4 4 1.13308 0.674917 -0.0859167
5 5 0.826083 -0.140083 -0.583917
6 6 -0.173917 -0.195083 -0.619917
7 7 -0.614917 0.234917 0.169083
8 8 -0.0949167 0.108917 1.01408
9 9 0.442083 -0.740083 1.00108
10 10 -0.0749167 -1.47008 0.577083
11 11 -1.02892 -1.40208 0.666083
12 12 -1.48892 -0.999083 1.19908
ITEM: TIMESTEP
500000000
ITEM: NUMBER OF ATOMS
12
ITEM: BOX BOUNDS pp pp pp
-2.5000000000000000e+01 2.5000000000000000e+01
-2.5000000000000000e+01 2.5000000000000000e+01
-2.5000000000000000e+01 2.5000000000000000e+01
ITEM: ATOMS id type x y z
1 1 -2.16671 1.01757 -0.381231
2 2 -1.51294 0.228801 -0.277502
3 3 -1.04542 -0.129147 -1.0345
4 4 -0.615125 -0.925803 -0.498038
5 5 -0.582178 -0.877388 0.525695
6 6 -0.428804 -0.0669123 0.965011
7 7 -0.0205014 0.544375 0.0744999
8 8 0.569997 0.275787 -0.530527
9 9 0.865158 -0.75002 -0.265778
10 10 1.17522 -0.70616 0.67407
11 11 1.6367 0.316836 0.751303
12 12 2.12459 1.07206 -0.0029904
