LAMMPS data file via write_data, version 26 Jan 2017, timestep = 5000000

12 atoms
12 atom types
11 bonds
1 bond types

-2.5000000000000000e+01 2.5000000000000000e+01 xlo xhi
-2.5000000000000000e+01 2.5000000000000000e+01 ylo yhi
-2.5000000000000000e+01 2.5000000000000000e+01 zlo zhi

Masses

1 1
2 1
3 1
4 1
5 1
6 1
7 1
8 1
9 1
10 1
11 1
12 1

Atoms # bond

1 1 1 0.3590833246707916 1.0419167280197144 -1.8509166240692139 0 0 0
2 1 2 0.16108334064483643 1.436916708946228 -1.1779166460037231 0 0 0
3 1 3 0.5550833344459534 1.4489166736602783 -0.30791667103767395 0 0 0
4 1 4 1.1330833435058594 0.674916684627533 -0.08591669052839279 0 0 0
5 1 5 0.8260833024978638 -0.14008334279060364 -0.5839166641235352 0 0 0
6 1 6 -0.17391666769981384 -0.19508333504199982 -0.6199166774749756 0 0 0
7 1 7 -0.6149166822433472 0.23491665720939636 0.16908331215381622 0 0 0
8 1 8 -0.09491666406393051 0.10891665518283844 1.0140833854675293 0 0 0
9 1 9 0.44208332896232605 -0.7400833368301392 1.0010833740234375 0 0 0
10 1 10 -0.07491666823625565 -1.4700833559036255 0.5770833492279053 0 0 0
11 1 11 -1.0289167165756226 -1.4020832777023315 0.6660833358764648 0 0 0
12 1 12 -1.4889166355133057 -0.9990833401679993 1.1990833282470703 0 0 0

Bonds

1 1 3 4
2 1 1 2
3 1 2 3
4 1 7 8
5 1 6 7
6 1 4 5
7 1 5 6
8 1 11 12
9 1 8 9
10 1 10 11
11 1 9 10
