ITEM: TIMESTEP
0
ITEM: NUMBER OF ATOMS
12
ITEM: BOX BOUNDS pp pp pp
-2.5000000000000000e+01 2.5000000000000000e+01
-2.5000000000000000e+01 2.5000000000000000e+01
-2.5000000000000000e+01 2.5000000000000000e+01
ITEM: ATOMS id type x y z
1 1 6.06886 2.41981 -0.446266
2 2 6.98968 2.6441 -0.371261
3 3 7.53638 1.73181 -0.291972
4 4 7.78984 1.54398 0.769756
5 5 6.89278 1.88762 1.2778
6 6 6.23659 1.29406 0.808563
7 7 6.53224 0.333431 0.861763
8 8 7.0612 0.23081 1.64907
9 9 6.49108 0.656202 2.46846
10 10 5.56075 0.573438 2.20956
11 11 5.18519 -0.287683 1.7125
12 12 5.65542 -1.02758 1.35203
ITEM: TIMESTEP
500000000
ITEM: NUMBER OF ATOMS
12
ITEM: BOX BOUNDS pp pp pp
-2.5000000000000000e+01 2.5000000000000000e+01
-2.5000000000000000e+01 2.5000000000000000e+01
-2.5000000000000000e+01 2.5000000000000000e+01
ITEM: ATOMS id type x y z
1 1 8.23708 -0.265144 -0.107752
2 2 8.2212 0.688043 0.351768
3 3 8.09254 1.69614 0.739539
4 4 7.48489 1.53499 1.4638
5 5 7.04931 0.543261 1.37466
6 6 6.44913 0.51164 0.660953
7 7 6.04768 1.44623 0.367567
8 8 5.8872 2.00317 1.19172
9 9 5.64258 1.7241 2.07972
10 10 5.60216 0.695027 2.14902
11 11 4.94561 0.554618 1.29421
12 12 4.34063 0.867893 0.434795
