ITEM: TIMESTEP
0
ITEM: NUMBER OF ATOMS
12
ITEM: BOX BOUNDS pp pp pp
-2.5000000000000000e+01 2.5000000000000000e+01
-2.5000000000000000e+01 2.5000000000000000e+01
-2.5000000000000000e+01 2.5000000000000000e+01
ITEM: ATOMS id type x y z
1 1 6.06886 2.41981 -0.446266
2 2 6.98968 2.6441 -0.371261
3 3 7.53638 1.73181 -0.291972
4 4 7.78984 1.54398 0.769756
5 5 6.89278 1.88762 1.2778
6 6 6.23659 1.29406 0.808563
7 7 6.53224 0.333431 0.861763
8 8 7.0612 0.23081 1.64907
9 9 6.49108 0.656202 2.46846
10 10 5.56075 0.573438 2.20956
11 11 5.18519 -0.287683 1.7125
12 12 5.65542 -1.02758 1.35203
ITEM: TIMESTEP
500000000
ITEM: NUMBER OF ATOMS
12
ITEM: BOX BOUNDS pp pp pp
-2.5000000000000000e+01 2.5000000000000000e+01
-2.5000000000000000e+01 2.5000000000000000e+01
-2.5000000000000000e+01 2.5000000000000000e+01
ITEM: ATOMS id type x y z
1 1 5.6177 1.06174 3.21248
2 2 6.43629 1.4934 2.79639
3 3 5.97546 1.84249 1.82557
4 4 5.37969 1.31888 1.59241
5 5 5.8498 0.32839 1.54766
6 6 6.77721 0.288166 1.47006
7 7 7.16659 1.14765 0.896
8 8 6.31618 1.41812 0.226312
9 9 6.08015 0.537913 -0.169084
10 10 6.96241 0.0449938 -0.335654
11 11 7.59254 0.765771 -0.63762
12 12 7.84602 1.75247 -0.424498
